Start File for LAMMPS 
648 atoms 
2 atom types 
432 bonds
216 angles
1 bond types
1 angle types

0. 19.71095988717970 xlo xhi
0. 19.71095988700000 ylo yhi
0. 98.55479943500000 zlo zhi

Masses

  1 15.999400  # (O) 
  2 1.007940  # (H) 

 
Atoms 

1 1 1 -1.112800 2.039539 3.619412 41.960466
2 1 2 0.556400 2.333208 4.396591 41.485088
3 1 2 0.556400 1.084792 3.645995 41.897350
4 1 1 -1.112800 2.614898 0.172711 45.107017
5 1 2 0.556400 1.755526 0.415792 45.451435
6 1 2 0.556400 2.608976 0.487523 44.203086
7 1 1 -1.112800 1.533874 2.182080 48.258655
8 1 2 0.556400 0.924649 2.363683 48.974265
9 1 2 0.556400 1.572399 2.999979 47.762885
10 1 1 -1.112800 19.663715 2.320624 50.470701
11 1 2 0.556400 19.602064 3.267331 50.597883
12 1 2 0.556400 0.577446 2.029425 51.134927
13 1 1 -1.112800 1.797449 1.509143 52.269558
14 1 2 0.556400 1.263241 1.376734 53.052706
15 1 2 0.556400 1.840100 0.645377 51.859288
16 1 1 -1.112800 1.646334 1.745582 57.537249
17 1 2 0.556400 1.332314 2.647984 57.594630
18 1 2 0.556400 2.517503 1.818957 57.147489
19 1 1 -1.112800 3.241869 6.230752 41.066532
20 1 2 0.556400 3.278124 6.123370 42.016998
21 1 2 0.556400 2.703015 7.010606 40.933505
22 1 1 -1.112800 1.302471 3.504832 44.995254
23 1 2 0.556400 0.979899 3.878133 45.815513
24 1 2 0.556400 2.225528 3.315965 45.164153
25 1 1 -1.112800 0.225752 4.507155 47.606139
26 1 2 0.556400 19.673658 5.417445 47.741809
27 1 2 0.556400 19.196377 3.992876 47.928089
28 1 1 -1.112800 0.552235 4.966958 50.983161
29 1 2 0.556400 1.303800 4.851478 50.401743
30 1 2 0.556400 0.325604 5.893333 50.901310
31 1 1 -1.112800 1.568046 5.563332 53.450189
32 1 2 0.556400 1.424585 5.020825 54.225647
33 1 2 0.556400 1.162745 5.072300 52.735451
34 1 1 -1.112800 1.623873 4.572961 56.129312
35 1 2 0.556400 2.565225 4.703493 56.243552
36 1 2 0.556400 1.225910 5.362908 56.495154
37 1 1 -1.112800 1.502199 8.447414 41.161201
38 1 2 0.556400 0.567102 8.607769 41.034268
39 1 2 0.556400 1.602376 8.348501 42.107992
40 1 1 -1.112800 2.053517 7.600547 46.338268
41 1 2 0.556400 2.254356 8.536185 46.316425
42 1 2 0.556400 1.267428 7.536430 46.880657
43 1 1 -1.112800 19.299513 7.055412 47.951856
44 1 2 0.556400 18.672017 7.679839 47.587752
45 1 2 0.556400 19.351033 7.280906 48.880688
46 1 1 -1.112800 0.227598 7.711092 50.750322
47 1 2 0.556400 19.133521 8.052114 51.140004
48 1 2 0.556400 0.644055 8.475495 50.352224
49 1 1 -1.112800 0.343829 11.461769 53.647460
50 1 2 0.556400 19.617368 11.803075 52.867457
51 1 2 0.556400 19.563739 10.671238 53.871432
52 1 1 -1.112800 2.792401 8.881831 55.987266
53 1 2 0.556400 2.093265 8.228127 55.976687
54 1 2 0.556400 2.341222 9.713419 56.132632
55 1 1 -1.112800 2.778019 11.218725 41.518371
56 1 2 0.556400 2.390709 10.421137 41.157709
57 1 2 0.556400 2.258313 11.929159 41.142312
58 1 1 -1.112800 1.287316 10.999398 43.631211
59 1 2 0.556400 1.109353 11.889404 43.935269
60 1 2 0.556400 1.882221 11.113452 42.890056
61 1 1 -1.112800 0.190216 12.663564 47.118040
62 1 2 0.556400 0.738201 13.230157 47.661102
63 1 2 0.556400 19.022611 13.036049 47.192942
64 1 1 -1.112800 1.455497 10.202465 49.963625
65 1 2 0.556400 1.753704 10.641361 49.166960
66 1 2 0.556400 2.032564 10.534941 50.651146
67 1 1 -1.112800 2.666122 11.880420 52.044593
68 1 2 0.556400 2.012821 11.659659 52.708441
69 1 2 0.556400 2.536284 12.814635 51.881452
70 1 1 -1.112800 1.937092 11.650675 56.674029
71 1 2 0.556400 2.501367 11.285387 57.355491
72 1 2 0.556400 1.058350 11.628988 57.052941
73 1 1 -1.112800 1.293153 13.662795 41.156458
74 1 2 0.556400 0.997056 14.506189 40.814046
75 1 2 0.556400 1.367920 13.800073 42.100808
76 1 1 -1.112800 1.190666 13.809672 43.945237
77 1 2 0.556400 2.010527 14.158937 44.294628
78 1 2 0.556400 0.517780 14.131210 44.545294
79 1 1 -1.112800 3.652253 14.245332 44.918513
80 1 2 0.556400 4.414308 14.439327 44.372738
81 1 2 0.556400 3.672114 13.294769 45.029267
82 1 1 -1.112800 2.578483 14.638626 51.667837
83 1 2 0.556400 3.305302 15.156796 51.322199
84 1 2 0.556400 1.921970 14.651610 50.971378
85 1 1 -1.112800 2.291978 14.600582 55.503515
86 1 2 0.556400 2.373801 13.777548 55.985335
87 1 2 0.556400 2.714025 15.250552 56.065339
88 1 1 -1.112800 3.625247 16.616781 56.963121
89 1 2 0.556400 4.568107 16.758798 57.047244
90 1 2 0.556400 3.232713 17.448893 57.227203
91 1 1 -1.112800 0.539933 16.517199 41.129477
92 1 2 0.556400 1.211328 17.084313 41.508744
93 1 2 0.556400 0.324507 16.927349 40.291861
94 1 1 -1.112800 2.429818 17.358824 46.402581
95 1 2 0.556400 1.639850 16.833352 46.529313
96 1 2 0.556400 2.191942 17.989738 45.723174
97 1 1 -1.112800 4.745165 15.876456 47.154565
98 1 2 0.556400 4.523941 15.357172 46.381496
99 1 2 0.556400 4.088236 16.572418 47.172212
100 1 1 -1.112800 1.978387 18.761616 51.226533
101 1 2 0.556400 2.783954 18.466444 50.802071
102 1 2 0.556400 1.903638 18.213022 52.007358
103 1 1 -1.112800 2.123684 19.442169 54.855589
104 1 2 0.556400 1.999419 19.109466 55.744464
105 1 2 0.556400 2.461393 18.693414 54.364111
106 1 1 -1.112800 2.005928 18.765095 57.457654
107 1 2 0.556400 2.042124 19.663697 57.785427
108 1 2 0.556400 1.086306 18.514466 57.545478
109 1 1 -1.112800 3.131615 1.049428 42.459658
110 1 2 0.556400 2.760250 1.919068 42.311177
111 1 2 0.556400 4.041010 1.215961 42.707646
112 1 1 -1.112800 5.771863 1.040285 43.901662
113 1 2 0.556400 5.355501 1.553396 44.594188
114 1 2 0.556400 6.662427 1.387114 43.848407
115 1 1 -1.112800 4.088044 1.036247 47.493718
116 1 2 0.556400 3.271782 1.328302 47.899493
117 1 2 0.556400 3.894793 1.011658 46.556552
118 1 1 -1.112800 6.865934 17.943058 53.841940
119 1 2 0.556400 6.923759 16.989280 53.898468
120 1 2 0.556400 7.775304 18.235370 53.780040
121 1 1 -1.112800 4.076609 2.530068 53.453496
122 1 2 0.556400 4.696559 2.209896 52.798222
123 1 2 0.556400 3.215169 2.342578 53.080667
124 1 1 -1.112800 4.253273 2.162428 56.425555
125 1 2 0.556400 4.237725 3.119407 56.439053
126 1 2 0.556400 4.209522 1.934774 55.496851
127 1 1 -1.112800 6.053321 6.337330 40.869221
128 1 2 0.556400 5.106701 6.396942 40.740428
129 1 2 0.556400 6.291665 7.166107 41.284615
130 1 1 -1.112800 4.110411 3.128217 45.199186
131 1 2 0.556400 4.186679 3.815588 45.860954
132 1 2 0.556400 4.425037 3.535918 44.392327
133 1 1 -1.112800 3.791376 4.924038 47.124877
134 1 2 0.556400 3.523919 5.781179 46.793201
135 1 2 0.556400 3.365598 4.853795 47.979283
136 1 1 -1.112800 3.019524 4.960174 49.813798
137 1 2 0.556400 3.546032 5.706994 50.098893
138 1 2 0.556400 3.201794 4.277556 50.459586
139 1 1 -1.112800 4.367529 5.250274 53.384127
140 1 2 0.556400 4.326136 4.295477 53.330436
141 1 2 0.556400 3.454781 5.533474 53.330093
142 1 1 -1.112800 4.229184 4.996204 56.343831
143 1 2 0.556400 4.205146 5.390587 55.471985
144 1 2 0.556400 4.462328 5.718174 56.927471
145 1 1 -1.112800 6.477241 8.671351 42.636893
146 1 2 0.556400 6.212304 8.252529 43.455812
147 1 2 0.556400 6.001283 9.501772 42.627105
148 1 1 -1.112800 4.513135 9.212207 46.514747
149 1 2 0.556400 5.101977 9.606861 47.157977
150 1 2 0.556400 4.309915 9.923470 45.907261
151 1 1 -1.112800 6.366919 10.384496 48.458796
152 1 2 0.556400 5.734001 10.538177 49.160243
153 1 2 0.556400 6.754814 9.534664 48.667497
154 1 1 -1.112800 5.522565 6.410674 51.085040
155 1 2 0.556400 5.826130 7.318351 51.070775
156 1 2 0.556400 5.427291 6.204068 52.014808
157 1 1 -1.112800 4.948051 9.143382 54.382499
158 1 2 0.556400 4.100632 9.083310 54.823527
159 1 2 0.556400 5.294645 9.996508 54.643805
160 1 1 -1.112800 5.340331 7.012276 57.989092
161 1 2 0.556400 4.643239 7.486127 58.442698
162 1 2 0.556400 6.063596 7.637430 57.941112
163 1 1 -1.112800 5.201276 11.049212 42.771894
164 1 2 0.556400 4.479344 11.123176 42.147734
165 1 2 0.556400 5.812642 11.739322 42.514579
166 1 1 -1.112800 3.620068 11.649614 44.864219
167 1 2 0.556400 2.740788 11.360641 44.620101
168 1 2 0.556400 4.188825 11.288255 44.184390
169 1 1 -1.112800 7.252140 12.672906 47.141963
170 1 2 0.556400 6.972474 11.802018 47.424052
171 1 2 0.556400 8.018569 12.865505 47.682078
172 1 1 -1.112800 4.645119 11.437565 50.105851
173 1 2 0.556400 4.641192 12.194236 49.519621
174 1 2 0.556400 3.944159 11.616047 50.732773
175 1 1 -1.112800 3.960617 12.517408 54.832526
176 1 2 0.556400 3.548625 13.373573 54.948611
177 1 2 0.556400 3.227515 11.908022 54.746265
178 1 1 -1.112800 6.657168 11.458705 55.087960
179 1 2 0.556400 5.842466 11.953036 55.178117
180 1 2 0.556400 7.095393 11.562183 55.932639
181 1 1 -1.112800 6.073090 13.122569 41.340947
182 1 2 0.556400 5.819704 13.340758 40.444052
183 1 2 0.556400 5.942966 13.934269 41.831296
184 1 1 -1.112800 5.871058 15.105355 43.400012
185 1 2 0.556400 6.038614 16.017749 43.636006
186 1 2 0.556400 6.698217 14.656473 43.574784
187 1 1 -1.112800 5.086729 13.559030 48.514705
188 1 2 0.556400 5.777136 13.247769 47.929310
189 1 2 0.556400 4.777305 14.369915 48.111029
190 1 1 -1.112800 4.903116 16.008399 50.611821
191 1 2 0.556400 5.297633 15.518888 51.333602
192 1 2 0.556400 5.280486 15.618852 49.823103
193 1 1 -1.112800 2.519137 16.744025 53.408190
194 1 2 0.556400 2.650611 16.221091 54.199067
195 1 2 0.556400 2.442318 16.099720 52.704484
196 1 1 -1.112800 6.393085 17.494125 56.514188
197 1 2 0.556400 6.444017 17.961247 55.680260
198 1 2 0.556400 7.075952 16.825804 56.456998
199 1 1 -1.112800 2.688314 18.080549 41.744655
200 1 2 0.556400 3.461079 17.888631 42.275911
201 1 2 0.556400 2.676122 19.035121 41.674832
202 1 1 -1.112800 4.967672 17.728646 43.952493
203 1 2 0.556400 5.322749 18.600633 44.125090
204 1 2 0.556400 4.373635 17.562234 44.684381
205 1 1 -1.112800 5.995970 18.635345 47.683050
206 1 2 0.556400 5.211937 19.177227 47.771866
207 1 2 0.556400 5.668013 17.784734 47.391269
208 1 1 -1.112800 4.872372 18.660297 51.755558
209 1 2 0.556400 5.129661 17.871344 51.278497
210 1 2 0.556400 5.217952 18.530168 52.638662
211 1 1 -1.112800 7.689652 15.339279 53.554810
212 1 2 0.556400 7.158574 14.572187 53.340898
213 1 2 0.556400 8.214310 15.494527 52.769403
214 1 1 -1.112800 6.665939 0.785999 57.179778
215 1 2 0.556400 5.879128 1.311597 57.324370
216 1 2 0.556400 6.349243 19.594179 57.149369
217 1 1 -1.112800 9.730671 2.043648 40.336400
218 1 2 0.556400 9.218897 1.396566 40.821790
219 1 2 0.556400 9.131503 2.779825 40.212813
220 1 1 -1.112800 7.554092 3.419471 44.569206
221 1 2 0.556400 7.060146 3.101140 45.324795
222 1 2 0.556400 6.884291 3.696912 43.944206
223 1 1 -1.112800 6.805006 1.849564 46.849210
224 1 2 0.556400 5.970662 1.551025 47.211117
225 1 2 0.556400 7.396964 1.106514 46.966236
226 1 1 -1.112800 7.468799 2.473933 49.540517
227 1 2 0.556400 7.719844 1.551481 49.588360
228 1 2 0.556400 7.424186 2.662198 48.603074
229 1 1 -1.112800 6.212107 1.780419 51.988341
230 1 2 0.556400 6.860092 2.181710 51.409279
231 1 2 0.556400 6.724786 1.433988 52.718668
232 1 1 -1.112800 7.425434 1.300087 54.593071
233 1 2 0.556400 7.200656 1.380844 55.519993
234 1 2 0.556400 8.001336 0.536652 54.551414
235 1 1 -1.112800 8.183932 4.331636 40.808234
236 1 2 0.556400 8.875813 4.819335 41.255093
237 1 2 0.556400 7.484521 4.972050 40.678136
238 1 1 -1.112800 5.366200 4.914937 43.447081
239 1 2 0.556400 5.499522 5.385607 42.624325
240 1 2 0.556400 5.423813 5.590921 44.122327
241 1 1 -1.112800 8.501266 7.314024 46.210427
242 1 2 0.556400 8.576257 6.399047 46.481398
243 1 2 0.556400 8.877021 7.335238 45.330319
244 1 1 -1.112800 6.505371 5.219671 48.367724
245 1 2 0.556400 5.837200 4.659221 47.973166
246 1 2 0.556400 6.473794 5.010055 49.301157
247 1 1 -1.112800 7.244568 5.042431 54.297277
248 1 2 0.556400 6.350774 4.878293 53.996573
249 1 2 0.556400 7.426781 5.942767 54.028158
250 1 1 -1.112800 7.874409 5.761676 57.037944
251 1 2 0.556400 7.688328 5.682949 56.102312
252 1 2 0.556400 7.013186 5.751669 57.455587
253 1 1 -1.112800 9.352275 7.853194 43.327444
254 1 2 0.556400 8.524643 8.183676 42.978104
255 1 2 0.556400 9.781543 8.624483 43.697679
256 1 1 -1.112800 5.897731 7.089376 44.987766
257 1 2 0.556400 6.617036 6.800175 45.549188
258 1 2 0.556400 5.327588 7.593169 45.568594
259 1 1 -1.112800 7.343670 7.831690 48.728272
260 1 2 0.556400 6.660721 7.174973 48.864422
261 1 2 0.556400 7.577128 7.747049 47.803845
262 1 1 -1.112800 5.527853 9.095735 51.548270
263 1 2 0.556400 5.237592 9.304817 52.436113
264 1 2 0.556400 4.825475 9.418725 50.983846
265 1 1 -1.112800 7.379055 7.777195 54.291953
266 1 2 0.556400 7.899337 8.512746 54.615221
267 1 2 0.556400 6.486421 8.118926 54.240429
268 1 1 -1.112800 10.292194 6.960057 56.437462
269 1 2 0.556400 9.814400 7.668528 56.006168
270 1 2 0.556400 9.657154 6.575282 57.041535
271 1 1 -1.112800 8.673917 12.021324 42.256003
272 1 2 0.556400 9.363646 12.614862 41.958989
273 1 2 0.556400 7.907933 12.264135 41.735865
274 1 1 -1.112800 10.663918 10.375077 43.319804
275 1 2 0.556400 10.749625 10.981911 44.055086
276 1 2 0.556400 9.830175 10.608721 42.911742
277 1 1 -1.112800 11.130831 10.811715 49.528285
278 1 2 0.556400 10.469799 11.226717 50.082398
279 1 2 0.556400 10.713755 10.007901 49.218182
280 1 1 -1.112800 7.620646 12.741909 50.641002
281 1 2 0.556400 7.911405 13.473973 50.097152
282 1 2 0.556400 7.020782 12.249880 50.080376
283 1 1 -1.112800 9.291087 9.325913 55.202058
284 1 2 0.556400 9.581233 9.137133 54.309641
285 1 2 0.556400 9.509830 10.248181 55.335491
286 1 1 -1.112800 7.752769 12.495914 57.347405
287 1 2 0.556400 7.211577 13.253962 57.126710
288 1 2 0.556400 8.547117 12.870747 57.727855
289 1 1 -1.112800 9.525113 16.165558 41.984324
290 1 2 0.556400 10.120866 16.713094 41.472939
291 1 2 0.556400 9.966020 15.317740 42.039425
292 1 1 -1.112800 7.944172 13.616277 44.528924
293 1 2 0.556400 7.945461 12.994360 45.256557
294 1 2 0.556400 8.394784 13.157239 43.820077
295 1 1 -1.112800 8.377787 16.127229 46.653813
296 1 2 0.556400 8.852723 16.445980 45.886307
297 1 2 0.556400 7.624999 15.659006 46.292831
298 1 1 -1.112800 8.823231 14.369655 48.657050
299 1 2 0.556400 8.570273 14.773599 47.826944
300 1 2 0.556400 9.737571 14.625065 48.779441
301 1 1 -1.112800 5.618892 13.778331 52.548725
302 1 2 0.556400 4.851699 13.347699 52.925822
303 1 2 0.556400 6.030915 13.104355 52.008146
304 1 1 -1.112800 8.819293 16.080719 56.538417
305 1 2 0.556400 9.570470 16.290972 55.983657
306 1 2 0.556400 9.070053 15.272463 56.985714
307 1 1 -1.112800 8.742223 19.355149 41.475142
308 1 2 0.556400 9.417477 18.817376 41.061542
309 1 2 0.556400 7.945199 18.828616 41.413916
310 1 1 -1.112800 8.793001 0.339825 44.339674
311 1 2 0.556400 9.268346 1.164472 44.440842
312 1 2 0.556400 8.822405 0.159586 43.400056
313 1 1 -1.112800 8.754940 19.548211 47.106905
314 1 2 0.556400 8.244001 18.739409 47.138725
315 1 2 0.556400 8.866638 0.013959 46.172812
316 1 1 -1.112800 7.429871 18.989857 50.269983
317 1 2 0.556400 7.015659 18.607969 49.496148
318 1 2 0.556400 6.719624 19.444884 50.722456
319 1 1 -1.112800 9.494066 19.034244 52.727898
320 1 2 0.556400 9.056081 19.069566 51.877513
321 1 2 0.556400 10.093092 0.069840 52.720514
322 1 1 -1.112800 9.074552 18.931798 56.962072
323 1 2 0.556400 8.487991 19.674629 57.104831
324 1 2 0.556400 8.505085 18.163858 57.009056
325 1 1 -1.112800 12.152881 0.882769 40.607959
326 1 2 0.556400 12.475177 0.774121 39.713223
327 1 2 0.556400 11.315729 1.336022 40.508109
328 1 1 -1.112800 10.216176 2.423823 44.831609
329 1 2 0.556400 10.854501 2.860903 44.267930
330 1 2 0.556400 9.441923 2.985637 44.797988
331 1 1 -1.112800 10.789438 2.296644 47.449721
332 1 2 0.556400 10.873515 2.457705 46.509922
333 1 2 0.556400 9.979716 1.793424 47.535471
334 1 1 -1.112800 9.923910 3.223321 50.490414
335 1 2 0.556400 9.080224 3.023952 50.084608
336 1 2 0.556400 9.707952 3.803629 51.220370
337 1 1 -1.112800 9.228208 3.113958 53.817910
338 1 2 0.556400 8.618120 2.475164 54.186645
339 1 2 0.556400 8.678435 3.859579 53.577012
340 1 1 -1.112800 11.203664 0.458922 55.593670
341 1 2 0.556400 10.595526 0.023012 56.190649
342 1 2 0.556400 12.063118 0.340862 55.998185
343 1 1 -1.112800 10.308917 5.525930 41.994671
344 1 2 0.556400 9.922088 6.245892 42.492917
345 1 2 0.556400 10.763145 4.997023 42.650542
346 1 1 -1.112800 12.155920 4.163313 43.669696
347 1 2 0.556400 12.584285 3.837141 42.878275
348 1 2 0.556400 12.841082 4.146110 44.337895
349 1 1 -1.112800 10.073762 4.967281 47.808007
350 1 2 0.556400 10.300855 4.075462 48.071293
351 1 2 0.556400 10.751605 5.211416 47.177802
352 1 1 -1.112800 13.347080 3.768141 52.325748
353 1 2 0.556400 12.791996 4.335409 51.790659
354 1 2 0.556400 12.731392 3.242424 52.836416
355 1 1 -1.112800 10.536209 5.518380 52.595068
356 1 2 0.556400 10.790000 5.104126 53.419819
357 1 2 0.556400 10.420335 6.442421 52.816322
358 1 1 -1.112800 11.364714 4.661045 55.257580
359 1 2 0.556400 10.914452 5.248118 55.864904
360 1 2 0.556400 10.700261 4.019126 55.007235
361 1 1 -1.112800 12.979942 6.683191 41.405414
362 1 2 0.556400 12.093712 6.363235 41.574105
363 1 2 0.556400 13.345746 6.058011 40.779659
364 1 1 -1.112800 13.295483 8.567325 43.490634
365 1 2 0.556400 13.280010 8.037389 42.693665
366 1 2 0.556400 12.372952 8.719605 43.695524
367 1 1 -1.112800 11.312050 6.215987 49.965380
368 1 2 0.556400 11.030627 6.032263 50.861637
369 1 2 0.556400 10.680962 5.751447 49.415687
370 1 1 -1.112800 8.452712 9.088908 51.060646
371 1 2 0.556400 8.306133 8.472430 50.343219
372 1 2 0.556400 7.576209 9.284370 51.391962
373 1 1 -1.112800 10.589161 8.260130 52.725331
374 1 2 0.556400 9.879200 8.476855 52.120998
375 1 2 0.556400 11.363557 8.673876 52.344074
376 1 1 -1.112800 12.834896 8.079264 56.371263
377 1 2 0.556400 11.924683 7.788632 56.314007
378 1 2 0.556400 13.349579 7.280531 56.255684
379 1 1 -1.112800 13.584420 11.404621 43.436654
380 1 2 0.556400 12.982287 10.687983 43.236410
381 1 2 0.556400 14.411378 11.143579 43.031401
382 1 1 -1.112800 11.348864 12.971487 44.685852
383 1 2 0.556400 11.200902 13.141700 45.616103
384 1 2 0.556400 12.278401 12.750699 44.627160
385 1 1 -1.112800 11.989509 12.624445 47.575373
386 1 2 0.556400 11.726654 11.909657 48.155214
387 1 2 0.556400 11.813663 13.419139 48.079131
388 1 1 -1.112800 10.077493 11.853952 52.200048
389 1 2 0.556400 9.264311 12.321663 52.009747
390 1 2 0.556400 9.804732 11.103146 52.727422
391 1 1 -1.112800 11.887293 13.622356 53.077286
392 1 2 0.556400 11.357979 14.409635 52.949806
393 1 2 0.556400 11.356267 12.914464 52.712414
394 1 1 -1.112800 10.255333 12.025289 55.486331
395 1 2 0.556400 11.126669 11.857353 55.127439
396 1 2 0.556400 9.816150 12.548096 54.815493
397 1 1 -1.112800 10.895038 13.936888 42.180701
398 1 2 0.556400 11.762316 13.769245 41.811981
399 1 2 0.556400 10.908480 13.501747 43.033170
400 1 1 -1.112800 11.699970 16.163960 46.112921
401 1 2 0.556400 11.337894 16.118594 46.997836
402 1 2 0.556400 11.050102 16.657638 45.612736
403 1 1 -1.112800 11.412143 15.092452 48.930197
404 1 2 0.556400 12.309150 15.238528 48.629745
405 1 2 0.556400 11.211583 15.858248 49.468308
406 1 1 -1.112800 10.081740 15.672528 52.616959
407 1 2 0.556400 10.442301 15.997900 53.441799
408 1 2 0.556400 10.387208 16.296728 51.958707
409 1 1 -1.112800 14.150198 15.483405 55.373852
410 1 2 0.556400 14.245010 14.773309 56.008680
411 1 2 0.556400 13.940352 15.042747 54.550434
412 1 1 -1.112800 10.210374 13.767649 57.755001
413 1 2 0.556400 10.305744 13.141601 57.037228
414 1 2 0.556400 11.090980 14.119552 57.885114
415 1 1 -1.112800 11.162676 18.117103 40.904131
416 1 2 0.556400 11.944923 17.606187 41.112181
417 1 2 0.556400 11.489192 19.003382 40.748793
418 1 1 -1.112800 9.695417 17.411476 44.552837
419 1 2 0.556400 9.556839 17.099964 43.658417
420 1 2 0.556400 9.396531 18.320715 44.539303
421 1 1 -1.112800 10.346924 17.512377 49.989167
422 1 2 0.556400 10.938012 18.209774 49.705470
423 1 2 0.556400 9.503014 17.947540 50.110328
424 1 1 -1.112800 12.989303 0.169984 51.162352
425 1 2 0.556400 12.334890 0.595806 51.716112
426 1 2 0.556400 13.070159 0.744678 50.401155
427 1 1 -1.112800 11.379562 1.537986 53.169975
428 1 2 0.556400 10.583591 2.069632 53.173608
429 1 2 0.556400 11.432590 1.179241 54.055821
430 1 1 -1.112800 11.444861 16.705376 54.932039
431 1 2 0.556400 11.639753 17.611039 55.172919
432 1 2 0.556400 12.279506 16.246652 55.027805
433 1 1 -1.112800 16.351859 1.034147 42.618292
434 1 2 0.556400 16.436852 1.043324 43.571667
435 1 2 0.556400 16.235486 0.110272 42.396609
436 1 1 -1.112800 15.979840 1.880015 45.278633
437 1 2 0.556400 15.733267 1.201995 45.907698
438 1 2 0.556400 15.355872 2.589224 45.433287
439 1 1 -1.112800 15.187999 0.669505 47.816759
440 1 2 0.556400 14.493492 1.306162 47.985754
441 1 2 0.556400 15.790844 0.770793 48.553340
442 1 1 -1.112800 12.882639 2.401111 49.389868
443 1 2 0.556400 12.241834 2.299375 48.686128
444 1 2 0.556400 12.426401 2.913020 50.057722
445 1 1 -1.112800 14.891152 18.051299 51.909769
446 1 2 0.556400 14.222203 18.727389 51.801873
447 1 2 0.556400 15.198132 18.158932 52.809997
448 1 1 -1.112800 13.880605 0.230687 56.441793
449 1 2 0.556400 14.083833 19.333633 57.152603
450 1 2 0.556400 14.006203 19.428375 55.643665
451 1 1 -1.112800 13.935954 2.582633 42.040709
452 1 2 0.556400 13.258128 2.012066 41.678441
453 1 2 0.556400 14.656873 1.991335 42.257214
454 1 1 -1.112800 16.209840 6.014108 44.735213
455 1 2 0.556400 15.912275 6.923705 44.753097
456 1 2 0.556400 15.990791 5.707200 43.855408
457 1 1 -1.112800 14.442324 4.140211 45.659209
458 1 2 0.556400 15.076292 4.812206 45.408733
459 1 2 0.556400 14.403481 4.190999 46.614271
460 1 1 -1.112800 14.823262 4.007762 48.360214
461 1 2 0.556400 14.215392 3.483405 48.881536
462 1 2 0.556400 14.731096 4.895813 48.705326
463 1 1 -1.112800 15.462913 5.115258 53.620858
464 1 2 0.556400 15.158750 5.544259 54.420655
465 1 2 0.556400 14.681009 4.696659 53.260813
466 1 1 -1.112800 14.160838 5.476728 56.008501
467 1 2 0.556400 13.475427 5.221482 55.391012
468 1 2 0.556400 14.185890 4.764241 56.647223
469 1 1 -1.112800 16.945022 8.244420 41.332622
470 1 2 0.556400 16.499955 7.469884 40.988761
471 1 2 0.556400 17.567991 7.899136 41.972091
472 1 1 -1.112800 15.597795 8.744300 44.920504
473 1 2 0.556400 15.768206 9.585412 44.496568
474 1 2 0.556400 14.744612 8.473245 44.581622
475 1 1 -1.112800 14.520520 9.036979 48.329513
476 1 2 0.556400 14.521613 9.704691 47.643661
477 1 2 0.556400 14.576843 9.532233 49.146693
478 1 1 -1.112800 14.131172 6.526675 49.445502
479 1 2 0.556400 13.183810 6.608477 49.555256
480 1 2 0.556400 14.397340 7.350046 49.036299
481 1 1 -1.112800 13.509790 9.089781 52.360914
482 1 2 0.556400 14.117257 8.372088 52.181661
483 1 2 0.556400 13.714529 9.748821 51.697604
484 1 1 -1.112800 13.018345 10.402970 54.814131
485 1 2 0.556400 13.324134 9.924279 54.043690
486 1 2 0.556400 13.035063 9.756989 55.520290
487 1 1 -1.112800 13.774124 13.899310 41.966392
488 1 2 0.556400 13.715274 14.171128 42.882297
489 1 2 0.556400 13.906999 12.952172 42.005209
490 1 1 -1.112800 15.954843 10.758790 42.161110
491 1 2 0.556400 16.192327 9.937897 41.729870
492 1 2 0.556400 16.678677 11.352632 41.961994
493 1 1 -1.112800 14.318170 11.188131 46.283519
494 1 2 0.556400 14.050552 10.994435 45.385135
495 1 2 0.556400 13.597938 11.706816 46.641935
496 1 1 -1.112800 13.703434 10.844784 50.230938
497 1 2 0.556400 12.788532 10.851647 49.949619
498 1 2 0.556400 13.860674 11.730622 50.557739
499 1 1 -1.112800 15.715451 12.902359 54.590446
500 1 2 0.556400 15.454713 12.381381 53.830953
501 1 2 0.556400 16.309346 12.332941 55.079613
502 1 1 -1.112800 14.639559 10.056390 57.769037
503 1 2 0.556400 14.141832 10.653287 57.210276
504 1 2 0.556400 14.166147 9.226213 57.715015
505 1 1 -1.112800 13.237335 16.610140 41.807171
506 1 2 0.556400 13.293234 15.724761 41.447711
507 1 2 0.556400 13.326978 16.491360 42.752733
508 1 1 -1.112800 13.712693 15.474095 44.336328
509 1 2 0.556400 13.044903 15.699183 44.984112
510 1 2 0.556400 14.481911 15.979582 44.599040
511 1 1 -1.112800 14.323687 15.389979 48.785497
512 1 2 0.556400 14.747397 15.337766 49.642220
513 1 2 0.556400 14.670227 16.192195 48.394867
514 1 1 -1.112800 14.374975 13.002012 51.978130
515 1 2 0.556400 14.736453 13.885082 51.902290
516 1 2 0.556400 13.460875 13.137495 52.227723
517 1 1 -1.112800 17.458836 14.623460 53.531076
518 1 2 0.556400 16.910139 14.123912 54.135737
519 1 2 0.556400 18.224300 14.870583 54.049947
520 1 1 -1.112800 15.323355 14.047213 57.636376
521 1 2 0.556400 15.282872 13.361594 58.303099
522 1 2 0.556400 16.246785 14.085524 57.387298
523 1 1 -1.112800 15.682190 17.867735 41.953761
524 1 2 0.556400 14.964301 17.248973 41.819595
525 1 2 0.556400 16.468569 17.322345 41.973507
526 1 1 -1.112800 15.910028 17.320193 44.786922
527 1 2 0.556400 15.932740 17.639425 43.884810
528 1 2 0.556400 16.771020 17.541764 45.141648
529 1 1 -1.112800 15.695405 17.527088 47.680695
530 1 2 0.556400 15.732865 17.454658 46.726975
531 1 2 0.556400 15.703298 18.469104 47.850327
532 1 1 -1.112800 15.572513 15.430013 51.649447
533 1 2 0.556400 15.506261 16.381279 51.732730
534 1 2 0.556400 16.210770 15.174667 52.315524
535 1 1 -1.112800 15.784214 17.941488 54.474075
536 1 2 0.556400 15.623276 17.089432 54.879452
537 1 2 0.556400 16.714325 18.108122 54.626911
538 1 1 -1.112800 14.015248 17.328087 57.881540
539 1 2 0.556400 14.364957 16.550505 58.316629
540 1 2 0.556400 13.663413 17.001834 57.053287
541 1 1 -1.112800 17.551083 3.262061 42.156185
542 1 2 0.556400 17.828192 3.448382 43.053251
543 1 2 0.556400 17.149625 2.394452 42.204326
544 1 1 -1.112800 18.098349 3.367113 44.889281
545 1 2 0.556400 17.353197 2.784919 45.037708
546 1 2 0.556400 18.068329 3.986091 45.618799
547 1 1 -1.112800 19.674485 1.108456 45.781486
548 1 2 0.556400 0.015258 1.932446 45.297135
549 1 2 0.556400 0.058241 1.363219 46.699286
550 1 1 -1.112800 16.621062 0.160846 50.138967
551 1 2 0.556400 15.970232 19.444199 50.695567
552 1 2 0.556400 17.457894 19.502523 50.421057
553 1 1 -1.112800 0.342081 1.565147 54.469201
554 1 2 0.556400 0.195690 2.208338 55.162820
555 1 2 0.556400 1.103603 1.064916 54.762602
556 1 1 -1.112800 14.433648 2.994454 57.217181
557 1 2 0.556400 15.021585 2.590947 57.855730
558 1 2 0.556400 14.049368 2.256033 56.744640
559 1 1 -1.112800 15.645043 5.126124 42.317855
560 1 2 0.556400 14.883450 4.547231 42.284815
561 1 2 0.556400 16.396589 4.538790 42.237542
562 1 1 -1.112800 1.906203 6.320376 43.784867
563 1 2 0.556400 1.894216 6.763910 44.633021
564 1 2 0.556400 1.725782 5.403232 43.991087
565 1 1 -1.112800 17.760116 3.175727 48.227534
566 1 2 0.556400 18.032974 2.645293 48.976146
567 1 2 0.556400 16.813869 3.042720 48.171329
568 1 1 -1.112800 15.339791 7.072356 51.752070
569 1 2 0.556400 14.917494 6.707634 50.974333
570 1 2 0.556400 15.490306 6.316733 52.320059
571 1 1 -1.112800 17.373926 4.217245 55.454054
572 1 2 0.556400 16.683480 4.019890 56.086957
573 1 2 0.556400 16.918832 4.280445 54.614336
574 1 1 -1.112800 0.708034 7.249943 56.603783
575 1 2 0.556400 0.153409 7.095178 55.839145
576 1 2 0.556400 0.128124 7.112101 57.352740
577 1 1 -1.112800 18.542164 7.364212 43.460335
578 1 2 0.556400 17.986498 6.878376 44.069786
579 1 2 0.556400 19.396030 6.935803 43.520409
580 1 1 -1.112800 17.043438 8.488428 47.251267
581 1 2 0.556400 16.383318 8.531884 47.943066
582 1 2 0.556400 16.582233 8.770617 46.461400
583 1 1 -1.112800 16.951643 11.029235 49.965454
584 1 2 0.556400 17.593283 10.743998 49.314939
585 1 2 0.556400 16.260412 11.448484 49.452950
586 1 1 -1.112800 17.483078 8.840393 51.511891
587 1 2 0.556400 17.089998 9.569879 51.032756
588 1 2 0.556400 16.836998 8.136827 51.450187
589 1 1 -1.112800 18.785791 6.616001 54.656657
590 1 2 0.556400 18.361733 5.762489 54.745679
591 1 2 0.556400 19.495798 6.467247 54.032162
592 1 1 -1.112800 18.463613 7.631699 58.695583
593 1 2 0.556400 18.355724 8.578777 58.608199
594 1 2 0.556400 17.589846 7.274890 58.536051
595 1 1 -1.112800 18.566648 12.109788 42.062371
596 1 2 0.556400 19.038950 11.419457 42.527781
597 1 2 0.556400 19.253146 12.634932 41.651061
598 1 1 -1.112800 18.963395 10.259750 48.160418
599 1 2 0.556400 19.418129 10.921791 47.639697
600 1 2 0.556400 18.636330 9.631214 47.516832
601 1 1 -1.112800 15.493434 13.039099 47.804263
602 1 2 0.556400 14.764203 13.616356 48.030602
603 1 2 0.556400 15.132535 12.442303 47.148657
604 1 1 -1.112800 19.451855 12.217341 50.929288
605 1 2 0.556400 0.201219 11.428992 50.641472
606 1 2 0.556400 18.586468 12.150779 50.525670
607 1 1 -1.112800 17.780015 9.110091 54.149001
608 1 2 0.556400 18.039784 8.189025 54.168743
609 1 2 0.556400 17.372090 9.226052 53.290874
610 1 1 -1.112800 17.021814 10.612407 56.447654
611 1 2 0.556400 16.192571 10.294163 56.804457
612 1 2 0.556400 17.118342 10.149580 55.615365
613 1 1 -1.112800 18.193355 14.563237 44.222864
614 1 2 0.556400 17.992259 13.790398 43.695121
615 1 2 0.556400 18.097165 15.298679 43.617799
616 1 1 -1.112800 19.443237 16.123536 46.471512
617 1 2 0.556400 19.490195 16.049029 45.518372
618 1 2 0.556400 18.872418 15.403844 46.740657
619 1 1 -1.112800 17.707488 14.552348 47.622953
620 1 2 0.556400 16.912343 14.032782 47.504514
621 1 2 0.556400 17.621600 14.925986 48.500022
622 1 1 -1.112800 0.890552 14.319150 49.386471
623 1 2 0.556400 0.141130 14.909999 49.460615
624 1 2 0.556400 0.607802 13.516691 49.825041
625 1 1 -1.112800 19.362810 16.357378 55.666714
626 1 2 0.556400 19.295737 16.985518 54.947567
627 1 2 0.556400 0.486347 15.912215 55.519482
628 1 1 -1.112800 19.226401 11.876895 57.920689
629 1 2 0.556400 18.704223 11.479857 57.223608
630 1 2 0.556400 18.869500 11.507086 58.728213
631 1 1 -1.112800 18.276898 17.045463 42.889910
632 1 2 0.556400 18.992015 16.912513 42.267685
633 1 2 0.556400 18.650101 17.609133 43.567573
634 1 1 -1.112800 18.423049 18.355526 45.432673
635 1 2 0.556400 18.641027 19.286283 45.481750
636 1 2 0.556400 18.673669 18.004959 46.287380
637 1 1 -1.112800 17.488037 16.104378 49.884945
638 1 2 0.556400 16.986262 16.614090 49.248826
639 1 2 0.556400 16.837816 15.808986 50.522273
640 1 1 -1.112800 18.979874 18.422925 51.075175
641 1 2 0.556400 18.695431 17.768772 50.436890
642 1 2 0.556400 0.214366 18.492241 50.942703
643 1 1 -1.112800 18.689691 18.503041 53.924203
644 1 2 0.556400 18.864815 19.432435 54.071816