Start File for LAMMPS 
2187 atoms 
2 atom types 
1458 bonds
729 angles
1 bond types
1 angle types

0. 27.9385349349276 xlo xhi
0. 27.9385349300000 ylo yhi
0. 139.6926746700000 zlo zhi

Masses

  1 15.999400  # (O) 
  2 1.007940  # (H) 

 
Atoms 

1 1 1 -1.112800 27.765560 2.112995 57.538824
2 1 2 0.556400 0.416320 1.359787 57.498309
3 1 2 0.556400 27.685537 2.305114 58.473125
4 1 1 -1.112800 2.183622 0.681541 58.527531
5 1 2 0.556400 2.126154 1.358689 59.201623
6 1 2 0.556400 3.088411 0.726789 58.218435
7 1 1 -1.112800 0.535546 1.313256 65.033525
8 1 2 0.556400 1.116618 1.782503 64.434864
9 1 2 0.556400 0.859216 1.536361 65.906276
10 1 1 -1.112800 2.158763 2.063000 67.370485
11 1 2 0.556400 1.849031 2.953163 67.537544
12 1 2 0.556400 1.781853 1.540883 68.078697
13 1 1 -1.112800 1.357941 0.668775 69.628287
14 1 2 0.556400 0.648389 1.223662 69.952121
15 1 2 0.556400 1.161945 27.738308 69.978506
16 1 1 -1.112800 0.483800 3.068501 70.846421
17 1 2 0.556400 27.639160 3.407748 71.279757
18 1 2 0.556400 1.183285 3.184881 71.489389
19 1 1 -1.112800 27.848295 0.931401 74.975388
20 1 2 0.556400 26.940791 1.093900 74.717973
21 1 2 0.556400 0.009730 27.919852 74.915583
22 1 1 -1.112800 27.566378 2.738215 77.022005
23 1 2 0.556400 27.740475 2.093735 76.336026
24 1 2 0.556400 27.293849 2.217129 77.777273
25 1 1 -1.112800 1.522757 1.928499 85.491460
26 1 2 0.556400 1.885689 2.422897 84.756557
27 1 2 0.556400 0.879905 2.519197 85.883951
28 1 1 -1.112800 1.475458 4.259814 57.190462
29 1 2 0.556400 2.081074 4.036183 56.483744
30 1 2 0.556400 0.842538 3.541799 57.200338
31 1 1 -1.112800 0.970972 2.284350 60.350929
32 1 2 0.556400 0.369628 1.770759 60.890227
33 1 2 0.556400 1.128242 3.080490 60.858531
34 1 1 -1.112800 1.130206 5.077453 61.376706
35 1 2 0.556400 1.880361 5.306643 60.828097
36 1 2 0.556400 0.444288 5.691208 61.113928
37 1 1 -1.112800 2.307261 4.129574 63.812844
38 1 2 0.556400 1.968979 4.501873 62.998479
39 1 2 0.556400 2.919039 4.788136 64.141867
40 1 1 -1.112800 1.171830 4.585778 68.578370
41 1 2 0.556400 0.811150 3.896372 69.135919
42 1 2 0.556400 0.459160 4.807002 67.978875
43 1 1 -1.112800 2.116003 4.271751 74.362668
44 1 2 0.556400 2.338576 3.341565 74.324615
45 1 2 0.556400 2.936690 4.723153 74.165337
46 1 1 -1.112800 1.429426 6.141343 76.451707
47 1 2 0.556400 1.812465 5.661755 77.186219
48 1 2 0.556400 1.497040 5.539312 75.710614
49 1 1 -1.112800 3.002430 8.292702 77.317692
50 1 2 0.556400 2.424547 7.578407 77.049240
51 1 2 0.556400 2.428855 8.905312 77.778075
52 1 1 -1.112800 27.848894 2.709607 81.858995
53 1 2 0.556400 27.331205 1.910345 81.761996
54 1 2 0.556400 0.740272 2.414046 82.233322
55 1 1 -1.112800 0.480238 8.576808 56.458128
56 1 2 0.556400 0.223675 8.957363 57.298119
57 1 2 0.556400 0.920139 9.290232 55.995802
58 1 1 -1.112800 0.219688 10.221120 58.936164
59 1 2 0.556400 27.271090 10.046508 58.621938
60 1 2 0.556400 0.140667 11.030961 59.440292
61 1 1 -1.112800 1.374999 8.882157 60.964969
62 1 2 0.556400 1.005995 9.501511 60.335311
63 1 2 0.556400 1.347644 9.345838 61.801919
64 1 1 -1.112800 0.267566 8.490731 68.685902
65 1 2 0.556400 0.915287 7.908098 69.082424
66 1 2 0.556400 0.757554 8.979911 68.024958
67 1 1 -1.112800 2.444994 6.722174 69.455729
68 1 2 0.556400 2.309493 6.825114 70.397682
69 1 2 0.556400 1.891993 5.979383 69.213483
70 1 1 -1.112800 2.038323 7.377637 71.977731
71 1 2 0.556400 1.144746 7.365468 72.320665
72 1 2 0.556400 2.320126 8.287288 72.074443
73 1 1 -1.112800 0.674154 9.989849 74.916119
74 1 2 0.556400 1.379365 9.784113 74.302456
75 1 2 0.556400 1.080026 10.566235 75.563637
76 1 1 -1.112800 27.740163 7.384496 78.932013
77 1 2 0.556400 27.633427 7.527611 77.991610
78 1 2 0.556400 27.465911 8.209286 79.332935
79 1 1 -1.112800 1.855667 7.727243 82.820102
80 1 2 0.556400 1.674104 7.129422 82.094928
81 1 2 0.556400 1.538894 7.265790 83.596599
82 1 1 -1.112800 1.599972 11.702999 57.051345
83 1 2 0.556400 0.941675 11.338386 57.642898
84 1 2 0.556400 1.378850 12.632267 56.989717
85 1 1 -1.112800 0.021798 12.643693 61.205522
86 1 2 0.556400 0.460904 13.418881 60.855521
87 1 2 0.556400 27.088057 12.952219 61.450834
88 1 1 -1.112800 1.297815 11.225022 62.964244
89 1 2 0.556400 0.737827 11.768698 62.410112
90 1 2 0.556400 2.171545 11.603781 62.867442
91 1 1 -1.112800 1.827379 9.661031 66.766256
92 1 2 0.556400 1.265475 10.141685 66.158417
93 1 2 0.556400 2.295707 9.033857 66.215299
94 1 1 -1.112800 3.204197 11.081001 69.119527
95 1 2 0.556400 2.769239 10.669741 68.372594
96 1 2 0.556400 2.489376 11.436715 69.647476
97 1 1 -1.112800 2.814691 9.798449 73.277984
98 1 2 0.556400 3.563277 9.676628 73.861945
99 1 2 0.556400 2.600293 10.728274 73.353419
100 1 1 -1.112800 27.227657 12.072304 77.649400
101 1 2 0.556400 0.097850 11.562378 77.602864
102 1 2 0.556400 27.221405 12.431925 78.536455
103 1 1 -1.112800 1.347051 10.772069 78.581764
104 1 2 0.556400 1.663539 11.589332 78.966664
105 1 2 0.556400 0.742431 10.417994 79.233912
106 1 1 -1.112800 2.347017 10.460900 82.749733
107 1 2 0.556400 3.233356 10.367755 82.400507
108 1 2 0.556400 2.047508 9.562198 82.887064
109 1 1 -1.112800 1.394490 14.456516 56.915036
110 1 2 0.556400 0.446015 14.582585 56.887953
111 1 2 0.556400 1.715500 14.878245 56.117961
112 1 1 -1.112800 0.735705 14.725994 59.630093
113 1 2 0.556400 1.409230 15.372449 59.841501
114 1 2 0.556400 0.902710 14.495519 58.716188
115 1 1 -1.112800 27.718741 14.758790 64.170608
116 1 2 0.556400 27.273191 15.588504 64.341758
117 1 2 0.556400 0.685220 15.006857 63.981815
118 1 1 -1.112800 0.711525 14.791405 68.668287
119 1 2 0.556400 1.507965 15.001152 69.156058
120 1 2 0.556400 0.045365 14.657746 69.342526
121 1 1 -1.112800 2.985060 14.943892 70.689112
122 1 2 0.556400 3.201954 14.098578 71.082348
123 1 2 0.556400 3.286610 15.590070 71.327667
124 1 1 -1.112800 0.438288 14.426468 73.690641
125 1 2 0.556400 1.136562 13.909359 73.289089
126 1 2 0.556400 27.669477 13.799211 73.840448
127 1 1 -1.112800 2.063331 12.641232 75.899775
128 1 2 0.556400 1.493073 12.943897 76.606480
129 1 2 0.556400 2.908144 12.486914 76.322515
130 1 1 -1.112800 2.099869 13.709428 78.883956
131 1 2 0.556400 1.395847 14.308341 78.635181
132 1 2 0.556400 2.109041 13.734105 79.840794
133 1 1 -1.112800 0.171775 15.312883 80.690197
134 1 2 0.556400 0.020346 15.614848 79.794587
135 1 2 0.556400 27.422774 15.735046 81.205274
136 1 1 -1.112800 1.226708 18.002701 54.878710
137 1 2 0.556400 0.604588 17.481162 55.385854
138 1 2 0.556400 0.844475 18.046838 54.002250
139 1 1 -1.112800 3.511974 15.776512 59.861472
140 1 2 0.556400 3.343865 16.682933 59.603847
141 1 2 0.556400 3.888713 15.370994 59.080540
142 1 1 -1.112800 2.196742 15.992409 64.543148
143 1 2 0.556400 1.779459 16.781145 64.889562
144 1 2 0.556400 2.262745 15.405310 65.296268
145 1 1 -1.112800 1.085852 18.252717 65.689418
146 1 2 0.556400 1.101855 18.312389 66.644622
147 1 2 0.556400 0.943485 19.152356 65.395114
148 1 1 -1.112800 3.666224 16.973586 68.041875
149 1 2 0.556400 3.535155 16.186163 67.513654
150 1 2 0.556400 2.806390 17.153346 68.422144
151 1 1 -1.112800 26.857172 16.856312 73.176717
152 1 2 0.556400 26.593868 16.751960 72.262379
153 1 2 0.556400 27.358392 16.065035 73.373923
154 1 1 -1.112800 2.289312 15.898009 75.387870
155 1 2 0.556400 1.588688 15.439678 74.923876
156 1 2 0.556400 2.686474 15.228368 75.944713
157 1 1 -1.112800 1.555843 18.251229 78.002126
158 1 2 0.556400 1.907760 18.070707 78.873790
159 1 2 0.556400 2.318431 18.508627 77.484017
160 1 1 -1.112800 1.348647 17.764678 80.829539
161 1 2 0.556400 2.236516 17.813873 81.183798
162 1 2 0.556400 1.131621 16.832738 80.854441
163 1 1 -1.112800 2.094951 19.847243 57.031313
164 1 2 0.556400 1.652622 19.254343 56.423822
165 1 2 0.556400 2.330440 19.295076 57.776892
166 1 1 -1.112800 3.047337 18.370835 59.085613
167 1 2 0.556400 3.935311 18.722685 59.022869
168 1 2 0.556400 2.603234 18.949309 59.705590
169 1 1 -1.112800 1.659567 19.851744 61.759250
170 1 2 0.556400 1.029979 19.511088 62.394705
171 1 2 0.556400 2.498362 19.835528 62.220110
172 1 1 -1.112800 1.358927 21.267553 66.984726
173 1 2 0.556400 2.136799 20.709821 66.993816
174 1 2 0.556400 0.633519 20.670692 67.168498
175 1 1 -1.112800 0.871511 18.008958 68.235365
176 1 2 0.556400 0.469286 18.626590 68.846084
177 1 2 0.556400 0.513357 17.157075 68.484867
178 1 1 -1.112800 0.689804 18.577410 74.777804
179 1 2 0.556400 1.267531 17.905694 75.140103
180 1 2 0.556400 0.084466 18.095030 74.214682
181 1 1 -1.112800 2.540385 22.637947 76.941443
182 1 2 0.556400 3.040695 23.453863 76.955683
183 1 2 0.556400 2.207677 22.544836 77.834117
184 1 1 -1.112800 1.642305 21.792877 79.789696
185 1 2 0.556400 0.945638 21.252451 80.162291
186 1 2 0.556400 2.334058 21.170839 79.564357
187 1 1 -1.112800 0.420608 20.654551 83.895575
188 1 2 0.556400 1.341378 20.393169 83.905319
189 1 2 0.556400 0.312426 21.121420 83.066985
190 1 1 -1.112800 2.101013 22.429027 58.530823
191 1 2 0.556400 1.532712 22.410897 59.300847
192 1 2 0.556400 1.938666 21.593447 58.093009
193 1 1 -1.112800 0.693135 22.362831 60.959679
194 1 2 0.556400 0.982389 21.470364 61.149589
195 1 2 0.556400 0.990581 22.876432 61.710659
196 1 1 -1.112800 1.308810 24.019215 63.019847
197 1 2 0.556400 1.148964 23.961672 63.961850
198 1 2 0.556400 1.270175 24.955919 62.826651
199 1 1 -1.112800 0.791894 23.800718 65.703638
200 1 2 0.556400 1.087159 24.567960 66.193935
201 1 2 0.556400 1.212302 23.060177 66.140774
202 1 1 -1.112800 1.114828 20.576218 69.637253
203 1 2 0.556400 1.561918 20.951876 70.395689
204 1 2 0.556400 1.629912 20.869298 68.885572
205 1 1 -1.112800 2.053954 21.663018 72.170252
206 1 2 0.556400 1.456062 21.589825 72.914161
207 1 2 0.556400 2.845464 21.204681 72.452511
208 1 1 -1.112800 1.931803 24.452447 75.071113
209 1 2 0.556400 1.829669 23.721109 75.680165
210 1 2 0.556400 2.448042 25.097260 75.554792
211 1 1 -1.112800 2.053656 25.093558 78.444920
212 1 2 0.556400 1.988615 25.984889 78.102093
213 1 2 0.556400 1.148320 24.785434 78.485639
214 1 1 -1.112800 2.928610 23.523557 81.485945
215 1 2 0.556400 2.551185 24.373811 81.711444
216 1 2 0.556400 2.327759 23.159020 80.836082
217 1 1 -1.112800 0.314643 26.670454 57.410896
218 1 2 0.556400 1.074523 27.125174 57.774275
219 1 2 0.556400 0.635802 25.792327 57.205999
220 1 1 -1.112800 1.415062 26.621289 60.645124
221 1 2 0.556400 1.758581 27.068061 59.871417
222 1 2 0.556400 0.751290 26.023098 60.301896
223 1 1 -1.112800 1.064863 26.795572 63.378839
224 1 2 0.556400 1.140146 26.955900 62.438170
225 1 2 0.556400 0.897999 27.658992 63.756851
226 1 1 -1.112800 1.633000 25.703448 67.603532
227 1 2 0.556400 0.986787 26.405469 67.679737
228 1 2 0.556400 2.467505 26.157207 67.485483
229 1 1 -1.112800 0.159232 25.117785 69.929399
230 1 2 0.556400 0.601901 24.978192 69.092267
231 1 2 0.556400 27.250639 24.683769 69.828226
232 1 1 -1.112800 2.525603 24.451607 71.623894
233 1 2 0.556400 1.699884 24.634890 71.175756
234 1 2 0.556400 2.292176 23.828016 72.311555
235 1 1 -1.112800 3.876619 26.120200 76.292279
236 1 2 0.556400 3.921862 27.008467 76.646070
237 1 2 0.556400 3.951926 26.235055 75.344983
238 1 1 -1.112800 2.116420 27.903011 78.736686
239 1 2 0.556400 1.164505 0.058910 78.770909
240 1 2 0.556400 2.405858 0.662473 78.149099
241 1 1 -1.112800 2.952571 0.116320 83.596934
242 1 2 0.556400 2.323664 27.411826 83.269486
243 1 2 0.556400 2.603188 0.382124 84.447529
244 1 1 -1.112800 4.362328 1.599023 57.334357
245 1 2 0.556400 4.961717 1.012794 56.872512
246 1 2 0.556400 4.776773 2.459930 57.276850
247 1 1 -1.112800 4.352096 1.622940 60.728614
248 1 2 0.556400 3.721900 1.546239 61.444994
249 1 2 0.556400 4.370034 0.752622 60.330548
250 1 1 -1.112800 3.047383 1.669330 63.364171
251 1 2 0.556400 2.845913 2.584192 63.560816
252 1 2 0.556400 3.559317 1.369513 64.115347
253 1 1 -1.112800 4.482497 1.540608 65.669912
254 1 2 0.556400 3.816157 2.035884 66.146278
255 1 2 0.556400 5.120774 2.199168 65.395806
256 1 1 -1.112800 3.848822 1.423505 70.774465
257 1 2 0.556400 3.034381 1.001681 70.500637
258 1 2 0.556400 3.755706 2.332646 70.489817
259 1 1 -1.112800 2.716850 1.200197 75.046775
260 1 2 0.556400 1.769251 1.197419 75.181980
261 1 2 0.556400 2.898930 0.369820 74.606828
262 1 1 -1.112800 4.488602 1.932339 78.571707
263 1 2 0.556400 4.484191 1.497086 79.424213
264 1 2 0.556400 5.183188 2.587382 78.640279
265 1 1 -1.112800 1.919295 4.036452 78.387144
266 1 2 0.556400 1.341599 3.551796 77.797561
267 1 2 0.556400 2.671372 3.458318 78.515098
268 1 1 -1.112800 2.658545 2.873217 83.050801
269 1 2 0.556400 3.181774 2.093609 83.237013
270 1 2 0.556400 3.267419 3.473851 82.620984
271 1 1 -1.112800 5.719080 3.983269 57.633233
272 1 2 0.556400 5.825035 4.864785 57.275555
273 1 2 0.556400 6.304194 3.959574 58.390407
274 1 1 -1.112800 3.494622 4.380920 59.547059
275 1 2 0.556400 2.682156 4.229318 59.064205
276 1 2 0.556400 3.933333 3.530190 59.551719
277 1 1 -1.112800 6.172908 5.475686 62.120502
278 1 2 0.556400 5.904566 5.811568 61.265278
279 1 2 0.556400 6.247146 4.529751 61.994304
280 1 1 -1.112800 3.975084 6.252756 64.618365
281 1 2 0.556400 3.799055 7.050427 64.119399
282 1 2 0.556400 4.870632 6.013244 64.379914
283 1 1 -1.112800 3.377209 4.090654 70.643879
284 1 2 0.556400 3.095667 4.802659 70.069410
285 1 2 0.556400 4.141592 4.439958 71.102068
286 1 1 -1.112800 5.525225 4.129987 72.588423
287 1 2 0.556400 6.433931 3.884985 72.762949
288 1 2 0.556400 5.030081 3.320460 72.713840
289 1 1 -1.112800 6.474300 9.577482 76.886179
290 1 2 0.556400 5.765808 9.383318 76.272525
291 1 2 0.556400 7.271530 9.513697 76.360263
292 1 1 -1.112800 5.215502 4.776408 79.070863
293 1 2 0.556400 4.799510 5.622462 78.905409
294 1 2 0.556400 4.853917 4.491209 79.909999
295 1 1 -1.112800 1.577174 6.133983 80.557792
296 1 2 0.556400 1.012038 6.692744 80.024276
297 1 2 0.556400 1.659366 5.324532 80.053546
298 1 1 -1.112800 5.350796 7.856601 57.012965
299 1 2 0.556400 6.275422 8.059161 57.155335
300 1 2 0.556400 4.916400 8.709536 57.007118
301 1 1 -1.112800 5.089769 6.603252 59.496170
302 1 2 0.556400 4.418438 5.921087 59.510205
303 1 2 0.556400 4.921065 7.089416 58.689067
304 1 1 -1.112800 3.689093 8.392605 62.955593
305 1 2 0.556400 3.284665 8.396981 62.088039
306 1 2 0.556400 4.567591 8.744790 62.812624
307 1 1 -1.112800 4.726503 8.050926 67.137955
308 1 2 0.556400 4.625645 7.724366 68.032057
309 1 2 0.556400 4.272874 7.406610 66.594532
310 1 1 -1.112800 5.077961 7.202498 69.744316
311 1 2 0.556400 5.115448 8.111780 70.041017
312 1 2 0.556400 4.142989 7.016838 69.657194
313 1 1 -1.112800 4.014605 6.370923 73.725371
314 1 2 0.556400 4.505681 5.905354 73.048377
315 1 2 0.556400 3.314371 6.817601 73.249573
316 1 1 -1.112800 4.537640 8.658150 75.114823
317 1 2 0.556400 3.918602 8.555969 75.837722
318 1 2 0.556400 4.454438 7.848328 74.611338
319 1 1 -1.112800 4.063022 7.290588 79.788386
320 1 2 0.556400 3.669082 7.646195 78.991776
321 1 2 0.556400 3.328278 6.911860 80.271033
322 1 1 -1.112800 8.177981 7.852005 85.073062
323 1 2 0.556400 7.443614 7.410014 85.499185
324 1 2 0.556400 8.789480 7.147863 84.857455
325 1 1 -1.112800 6.585499 10.752366 55.886861
326 1 2 0.556400 6.960575 9.989760 56.327295
327 1 2 0.556400 5.681190 10.788813 56.198516
328 1 1 -1.112800 4.275811 10.662661 57.523956
329 1 2 0.556400 4.408975 10.746582 58.468125
330 1 2 0.556400 3.409398 11.039056 57.369399
331 1 1 -1.112800 5.439499 11.642051 63.288172
332 1 2 0.556400 5.730087 12.525692 63.513934
333 1 2 0.556400 5.479618 11.158139 64.113066
334 1 1 -1.112800 5.925406 10.403546 66.020882
335 1 2 0.556400 6.847328 10.459148 66.272277
336 1 2 0.556400 5.680917 9.496462 66.204335
337 1 1 -1.112800 5.181181 9.776878 70.462419
338 1 2 0.556400 4.550018 10.169227 69.859155
339 1 2 0.556400 5.189133 10.365140 71.217480
340 1 1 -1.112800 7.024900 8.014675 72.192413
341 1 2 0.556400 7.359134 7.117729 72.195235
342 1 2 0.556400 6.581712 8.102981 71.348601
343 1 1 -1.112800 4.953426 12.201931 76.798124
344 1 2 0.556400 4.786470 11.908022 77.693655
345 1 2 0.556400 5.220149 13.116466 76.891483
346 1 1 -1.112800 6.631433 15.245258 79.430398
347 1 2 0.556400 7.449438 15.735802 79.510808
348 1 2 0.556400 6.700826 14.553418 80.088253
349 1 1 -1.112800 4.829018 9.435924 81.538592
350 1 2 0.556400 4.330556 8.633665 81.383194
351 1 2 0.556400 5.388130 9.229772 82.287677
352 1 1 -1.112800 6.091535 15.001470 55.665998
353 1 2 0.556400 5.767248 14.358230 56.296325
354 1 2 0.556400 6.660561 14.499739 55.082298
355 1 1 -1.112800 6.536963 14.122304 60.586328
356 1 2 0.556400 6.156250 13.914016 59.733155
357 1 2 0.556400 5.782313 14.249723 61.161219
358 1 1 -1.112800 4.395864 14.899044 62.332042
359 1 2 0.556400 4.131174 15.377271 63.117834
360 1 2 0.556400 3.975942 15.369512 61.611933
361 1 1 -1.112800 5.336295 12.640288 67.321925
362 1 2 0.556400 5.407802 11.727987 67.041165
363 1 2 0.556400 5.948926 13.113398 66.758826
364 1 1 -1.112800 5.314292 13.591953 69.950862
365 1 2 0.556400 5.260078 13.019452 69.185659
366 1 2 0.556400 4.543427 14.155460 69.884081
367 1 1 -1.112800 2.570799 12.541669 73.157158
368 1 2 0.556400 2.501403 12.536500 74.111826
369 1 2 0.556400 3.456541 12.859848 72.982643
370 1 1 -1.112800 5.584528 14.898285 76.777329
371 1 2 0.556400 5.553308 15.638106 76.170763
372 1 2 0.556400 6.129074 15.205133 77.502274
373 1 1 -1.112800 4.467542 16.798507 80.520917
374 1 2 0.556400 4.837691 15.996238 80.889139
375 1 2 0.556400 4.893902 16.890482 79.668867
376 1 1 -1.112800 2.661258 13.108583 81.433930
377 1 2 0.556400 2.618986 12.187260 81.690070
378 1 2 0.556400 3.310217 13.492137 82.023820
379 1 1 -1.112800 5.715913 16.447759 58.250961
380 1 2 0.556400 5.674968 16.249655 57.315380
381 1 2 0.556400 6.494536 15.984927 58.560419
382 1 1 -1.112800 6.516508 19.103823 61.990567
383 1 2 0.556400 6.636894 18.156081 62.049927
384 1 2 0.556400 6.293467 19.260403 61.072979
385 1 1 -1.112800 4.542590 17.519533 64.893789
386 1 2 0.556400 3.762847 16.993705 65.071937
387 1 2 0.556400 4.522993 18.209971 65.556467
388 1 1 -1.112800 2.891854 14.587922 66.805855
389 1 2 0.556400 3.555434 13.898231 66.791050
390 1 2 0.556400 2.204015 14.246921 67.377543
391 1 1 -1.112800 5.660875 17.314776 70.140462
392 1 2 0.556400 5.465172 18.251591 70.122859
393 1 2 0.556400 5.237592 16.966398 69.355799
394 1 1 -1.112800 5.448781 16.135586 72.520895
395 1 2 0.556400 5.361917 15.186000 72.437385
396 1 2 0.556400 5.643421 16.437713 71.633727
397 1 1 -1.112800 4.567917 17.401475 74.828514
398 1 2 0.556400 4.972799 16.972197 74.074841
399 1 2 0.556400 3.679132 17.047288 74.857582
400 1 1 -1.112800 5.411257 19.451722 81.383916
401 1 2 0.556400 6.360184 19.346302 81.452142
402 1 2 0.556400 5.065840 18.561116 81.445068
403 1 1 -1.112800 5.105520 14.564032 82.211915
404 1 2 0.556400 6.044218 14.516365 82.393039
405 1 2 0.556400 4.773484 15.210709 82.834645
406 1 1 -1.112800 4.489781 20.662665 56.198716
407 1 2 0.556400 4.752483 21.471133 56.638716
408 1 2 0.556400 3.571087 20.545427 56.440559
409 1 1 -1.112800 5.474183 19.282966 59.374120
410 1 2 0.556400 6.026318 19.855329 58.841411
411 1 2 0.556400 5.776658 18.398410 59.168446
412 1 1 -1.112800 3.880625 19.606884 63.135945
413 1 2 0.556400 3.957907 19.061301 63.918632
414 1 2 0.556400 4.662183 19.402219 62.622613
415 1 1 -1.112800 3.648224 19.816024 67.552588
416 1 2 0.556400 4.360665 20.271650 68.000991
417 1 2 0.556400 3.723950 18.907224 67.843414
418 1 1 -1.112800 5.228470 19.922420 69.962955
419 1 2 0.556400 5.750798 20.640924 69.606363
420 1 2 0.556400 4.538908 20.354248 70.467198
421 1 1 -1.112800 4.257144 20.276142 73.164112
422 1 2 0.556400 4.452964 20.566896 74.054812
423 1 2 0.556400 4.502934 19.351091 73.154138
424 1 1 -1.112800 5.625856 20.846423 75.559555
425 1 2 0.556400 4.992827 20.227753 75.923908
426 1 2 0.556400 6.446328 20.354995 75.520126
427 1 1 -1.112800 3.781020 19.121561 76.643145
428 1 2 0.556400 4.345299 18.407665 76.346206
429 1 2 0.556400 4.245844 19.500419 77.389227
430 1 1 -1.112800 4.191569 20.625138 79.133564
431 1 2 0.556400 4.704928 20.058270 79.709198
432 1 2 0.556400 4.837245 21.204977 78.729683
433 1 1 -1.112800 4.085203 24.898019 59.463412
434 1 2 0.556400 3.292229 24.387943 59.628481
435 1 2 0.556400 4.681256 24.650498 60.170297
436 1 1 -1.112800 5.801638 24.043464 61.468247
437 1 2 0.556400 6.698975 24.091476 61.138532
438 1 2 0.556400 5.696371 24.836433 61.993938
439 1 1 -1.112800 5.558544 21.931516 63.365712
440 1 2 0.556400 5.497075 22.503927 62.600990
441 1 2 0.556400 4.781306 21.375387 63.312304
442 1 1 -1.112800 5.552345 23.604937 65.436423
443 1 2 0.556400 5.101805 24.164460 64.803826
444 1 2 0.556400 5.825928 22.840867 64.928897
445 1 1 -1.112800 5.781342 21.926334 68.117569
446 1 2 0.556400 5.669204 22.349692 67.266438
447 1 2 0.556400 5.170389 22.383588 68.695399
448 1 1 -1.112800 4.665966 23.147030 70.613836
449 1 2 0.556400 3.806045 23.522675 70.802674
450 1 2 0.556400 5.045882 22.972358 71.474874
451 1 1 -1.112800 6.270530 22.552499 72.909766
452 1 2 0.556400 5.847665 21.901899 73.470246
453 1 2 0.556400 6.799024 23.078870 73.509649
454 1 1 -1.112800 4.972364 24.602267 78.791826
455 1 2 0.556400 4.036205 24.754452 78.662684
456 1 2 0.556400 5.052217 24.368863 79.716693
457 1 1 -1.112800 5.668250 23.905378 81.540511
458 1 2 0.556400 5.949635 24.543155 82.196480
459 1 2 0.556400 4.721339 23.837225 81.662769
460 1 1 -1.112800 7.441872 23.834916 55.844420
461 1 2 0.556400 8.181716 24.201958 55.360537
462 1 2 0.556400 6.868939 23.472827 55.168498
463 1 1 -1.112800 5.267067 27.162635 59.748774
464 1 2 0.556400 6.129937 26.869166 59.456261
465 1 2 0.556400 4.717858 26.380255 59.698944
466 1 1 -1.112800 4.433258 26.169906 62.996380
467 1 2 0.556400 4.977477 26.894551 63.304515
468 1 2 0.556400 3.558835 26.366747 63.332342
469 1 1 -1.112800 4.271909 27.218242 67.489352
470 1 2 0.556400 4.431433 0.029976 66.916742
471 1 2 0.556400 5.087783 26.718363 67.462847
472 1 1 -1.112800 5.472435 26.512529 70.185838
473 1 2 0.556400 5.016953 26.721830 69.370387
474 1 2 0.556400 5.157647 25.639217 70.419219
475 1 1 -1.112800 3.493527 26.587435 73.577845
476 1 2 0.556400 4.425971 26.440416 73.419210
477 1 2 0.556400 3.054809 26.162947 72.840574
478 1 1 -1.112800 6.791893 26.082898 76.268290
479 1 2 0.556400 6.489277 26.928522 75.937270
480 1 2 0.556400 6.013715 25.685923 76.659546
481 1 1 -1.112800 4.660957 27.293634 79.963297
482 1 2 0.556400 4.941470 26.547014 79.434050
483 1 2 0.556400 3.755883 27.451618 79.694758
484 1 1 -1.112800 5.451273 26.711761 82.599626
485 1 2 0.556400 5.380023 26.887742 81.661444
486 1 2 0.556400 4.625496 27.027626 82.966441
487 1 1 -1.112800 9.530907 27.334003 56.774862
488 1 2 0.556400 9.854517 0.273406 56.976687
489 1 2 0.556400 10.267670 26.755516 56.971750
490 1 1 -1.112800 7.044615 1.265345 60.815970
491 1 2 0.556400 7.400745 0.513680 60.342257
492 1 2 0.556400 6.119961 1.288165 60.569545
493 1 1 -1.112800 6.670906 0.498066 63.466544
494 1 2 0.556400 6.987082 27.549495 63.637736
495 1 2 0.556400 6.875582 0.651980 62.544237
496 1 1 -1.112800 8.447873 2.782241 63.794980
497 1 2 0.556400 8.887651 2.863951 64.641237
498 1 2 0.556400 8.027082 1.923023 63.825166
499 1 1 -1.112800 7.011338 1.798930 70.926719
500 1 2 0.556400 7.244114 2.230983 71.748532
501 1 2 0.556400 6.133888 1.448468 71.079980
502 1 1 -1.112800 4.878704 1.626617 73.322670
503 1 2 0.556400 4.349257 1.359879 72.571159
504 1 2 0.556400 4.245465 1.754998 74.028899
505 1 1 -1.112800 7.078956 3.035160 76.723301
506 1 2 0.556400 7.945206 3.273140 76.392836
507 1 2 0.556400 6.774664 2.350416 76.127681
508 1 1 -1.112800 7.954878 1.701720 79.177562
509 1 2 0.556400 7.442687 2.217050 78.554403
510 1 2 0.556400 7.378634 1.599095 79.934955
511 1 1 -1.112800 6.314480 1.295245 82.252666
512 1 2 0.556400 5.991893 0.632071 82.862887
513 1 2 0.556400 7.258884 1.323425 82.406094
514 1 1 -1.112800 7.554977 3.841148 59.616655
515 1 2 0.556400 7.544902 3.015043 60.100059
516 1 2 0.556400 8.124707 4.413174 60.130878
517 1 1 -1.112800 9.610620 5.684062 60.308411
518 1 2 0.556400 10.366601 5.290141 59.873038
519 1 2 0.556400 9.836259 5.672212 61.238561
520 1 1 -1.112800 6.989231 7.254159 63.857083
521 1 2 0.556400 7.169961 7.072469 64.779340
522 1 2 0.556400 6.913442 6.389936 63.452599
523 1 1 -1.112800 6.295050 3.894912 65.413935
524 1 2 0.556400 7.133094 3.797620 64.961775
525 1 2 0.556400 6.531566 4.025839 66.332167
526 1 1 -1.112800 6.844837 3.561389 68.435112
527 1 2 0.556400 6.277591 3.097331 69.050835
528 1 2 0.556400 7.419904 2.883216 68.080696
529 1 1 -1.112800 8.171021 3.619856 73.034577
530 1 2 0.556400 8.737676 3.981080 72.352924
531 1 2 0.556400 8.471672 4.036406 73.842245
532 1 1 -1.112800 9.672837 3.781993 75.513243
533 1 2 0.556400 10.407965 3.961852 74.927180
534 1 2 0.556400 9.498157 4.619245 75.943043
535 1 1 -1.112800 7.939688 4.635432 79.297313
536 1 2 0.556400 8.018623 3.707421 79.076412
537 1 2 0.556400 7.010261 4.831880 79.179816
538 1 1 -1.112800 4.837663 4.093873 81.675323
539 1 2 0.556400 5.274037 3.258876 81.844406
540 1 2 0.556400 5.413391 4.749547 82.068846
541 1 1 -1.112800 9.745286 9.346586 55.446991
542 1 2 0.556400 10.610005 9.130887 55.796229
543 1 2 0.556400 9.860183 10.201972 55.033051
544 1 1 -1.112800 7.969109 8.734030 57.237088
545 1 2 0.556400 8.546062 8.764558 56.473920
546 1 2 0.556400 8.539105 8.942284 57.977336
547 1 1 -1.112800 6.318709 8.301563 61.384153
548 1 2 0.556400 6.472336 7.685142 62.100153
549 1 2 0.556400 6.095602 7.748744 60.635257
550 1 1 -1.112800 7.460330 6.913539 66.666308
551 1 2 0.556400 6.545973 7.062131 66.907354
552 1 2 0.556400 7.941809 7.612551 67.108792
553 1 1 -1.112800 7.397097 5.830734 69.823535
554 1 2 0.556400 6.569808 6.312193 69.828121
555 1 2 0.556400 7.238452 5.086541 69.242811
556 1 1 -1.112800 10.586965 9.640672 73.050734
557 1 2 0.556400 11.056645 8.806688 73.060879
558 1 2 0.556400 10.122066 9.644117 72.214021
559 1 1 -1.112800 9.406786 6.569626 75.810862
560 1 2 0.556400 8.811748 7.318614 75.845194
561 1 2 0.556400 10.183993 6.901002 75.361005
562 1 1 -1.112800 8.548542 7.393006 79.744201
563 1 2 0.556400 7.652466 7.684074 79.575209
564 1 2 0.556400 8.543959 6.461588 79.523583
565 1 1 -1.112800 6.659484 5.731082 82.681034
566 1 2 0.556400 7.526585 5.797923 83.080908
567 1 2 0.556400 6.345244 6.634158 82.637019
568 1 1 -1.112800 9.092048 12.196696 54.957363
569 1 2 0.556400 8.403849 11.698089 54.516902
570 1 2 0.556400 8.799607 12.257712 55.866751
571 1 1 -1.112800 8.510085 11.518784 60.284220
572 1 2 0.556400 7.584824 11.519447 60.529419
573 1 2 0.556400 8.777000 10.602441 60.357050
574 1 1 -1.112800 5.607992 11.160615 60.255838
575 1 2 0.556400 5.741463 10.331774 60.715664
576 1 2 0.556400 5.372123 11.781954 60.944702
577 1 1 -1.112800 8.676777 9.485914 66.609122
578 1 2 0.556400 9.498883 9.812656 66.974654
579 1 2 0.556400 8.940051 8.981728 65.839241
580 1 1 -1.112800 7.822724 11.618749 70.840080
581 1 2 0.556400 7.079592 11.398923 71.401919
582 1 2 0.556400 7.469745 12.247160 70.210210
583 1 1 -1.112800 6.474842 10.725511 72.973335
584 1 2 0.556400 6.788441 9.822440 73.021821
585 1 2 0.556400 6.859972 11.154643 73.737372
586 1 1 -1.112800 5.393298 11.078982 79.589338
587 1 2 0.556400 5.170082 10.476463 80.298829
588 1 2 0.556400 5.698922 10.512638 78.880762
589 1 1 -1.112800 7.283231 12.684284 80.823661
590 1 2 0.556400 6.638205 12.123727 80.392444
591 1 2 0.556400 8.129217 12.311488 80.575541
592 1 1 -1.112800 6.662096 9.451577 83.327232
593 1 2 0.556400 7.080823 10.053211 82.711654
594 1 2 0.556400 7.351392 9.230993 83.953686
595 1 1 -1.112800 5.430727 13.435150 57.741069
596 1 2 0.556400 6.380422 13.321361 57.704161
597 1 2 0.556400 5.080078 12.546425 57.682366
598 1 1 -1.112800 10.336189 13.605634 60.716701
599 1 2 0.556400 11.035646 13.133780 60.264655
600 1 2 0.556400 9.678144 12.936520 60.905101
601 1 1 -1.112800 6.658802 13.757721 65.178320
602 1 2 0.556400 7.459256 13.442903 64.758326
603 1 2 0.556400 6.692208 14.708849 65.075994
604 1 1 -1.112800 8.578898 16.185460 66.816579
605 1 2 0.556400 7.900290 16.792618 67.111677
606 1 2 0.556400 8.819974 15.694702 67.602245
607 1 1 -1.112800 8.093279 13.762277 68.834296
608 1 2 0.556400 7.196775 14.053352 69.000992
609 1 2 0.556400 8.256511 13.998729 67.921237
610 1 1 -1.112800 5.139068 13.225261 72.497633
611 1 2 0.556400 5.311263 13.019301 71.578851
612 1 2 0.556400 5.523018 12.495211 72.983267
613 1 1 -1.112800 7.433725 12.073792 75.182731
614 1 2 0.556400 6.737280 11.806723 75.782623
615 1 2 0.556400 8.151058 11.465891 75.361956
616 1 1 -1.112800 10.266038 16.466942 78.067622
617 1 2 0.556400 10.002654 15.547676 78.110176
618 1 2 0.556400 10.784282 16.605048 78.860454
619 1 1 -1.112800 7.950451 14.772946 82.631599
620 1 2 0.556400 8.389084 14.410267 83.401207
621 1 2 0.556400 8.043097 14.095953 81.961278
622 1 1 -1.112800 8.545290 17.498127 59.102092
623 1 2 0.556400 8.374110 16.952278 59.869541
624 1 2 0.556400 9.166710 16.990418 58.580268
625 1 1 -1.112800 7.395314 16.385489 61.593943
626 1 2 0.556400 7.353244 16.183268 62.528592
627 1 2 0.556400 7.070602 15.595116 61.162544
628 1 1 -1.112800 7.070783 16.284625 64.227280
629 1 2 0.556400 7.765469 16.301424 64.885581
630 1 2 0.556400 6.411855 16.895039 64.558098
631 1 1 -1.112800 7.444161 18.839983 67.360088
632 1 2 0.556400 7.611385 19.193021 66.486228
633 1 2 0.556400 7.829984 19.481929 67.956140
634 1 1 -1.112800 8.831293 17.333556 70.370116
635 1 2 0.556400 7.900993 17.349833 70.145377
636 1 2 0.556400 8.856644 17.547298 71.302802
637 1 1 -1.112800 7.687012 15.290557 74.450619
638 1 2 0.556400 7.437837 14.379756 74.293823
639 1 2 0.556400 8.417254 15.446108 73.851634
640 1 1 -1.112800 7.980662 17.115227 76.561485
641 1 2 0.556400 8.726427 16.823803 77.086020
642 1 2 0.556400 8.013798 16.571548 75.774371
643 1 1 -1.112800 6.132646 18.230670 78.162515
644 1 2 0.556400 6.697924 17.753272 77.555239
645 1 2 0.556400 6.677422 18.372017 78.936771
646 1 1 -1.112800 7.934102 17.286186 81.273711
647 1 2 0.556400 8.523178 17.895069 81.719225
648 1 2 0.556400 8.064337 16.452390 81.725434
649 1 1 -1.112800 7.108496 20.440476 57.445747